4
Lattice="3.12900296 -1e-08 -0.0 -1.56450149 2.70979605 -0.0 -0.0 -1e-08 5.01368895" Properties=species:S:1:pos:R:3:forces:R:3 structure_id=AlN_wz_static_ref_1x1x1 batch=00_relaxed_equilibrium_refs calc_mode=static purpose=equilibrium_static_reference config_type=equilibrium_static_reference dataset=AlN_ModelB_v3_rich_physics_successful source_job_dir=/home/cxshu/simu_data/vasp/EGP/submission_sets/AlN_ModelB_v3_rich_physics_full/00_relaxed_equilibrium_refs/AlN_wz_static_ref_1x1x1 phase=wurtzite min_distance_A=1.9012948179067668 relax_converged=T energy=-29.79596966 stress="0.0001009294467917379 -2.8661009906055924e-08 -8.176376954907069e-10 -2.8661009906055924e-08 0.00010089030628800947 -3.645041329515823e-09 -8.176376954907069e-10 -3.645041329515823e-09 -0.0003295064496300008" free_energy=-29.79596966 pbc="T T T"
Al      -0.00000002       1.80653071       0.00057427       0.00000027      -0.00000018       0.00870749
Al       1.56450149       0.90326533       2.50741874      -0.00000036       0.00000032       0.00870753
N       -0.00000002       1.80653070       1.91465491       0.00000044      -0.00000039      -0.00870733
N        1.56450149       0.90326533       4.42149944      -0.00000035       0.00000024      -0.00870769
32
Lattice="6.25800592 -3e-08 -1e-08 -3.12900298 5.4195921 -0.0 -1e-08 -1e-08 10.0273779" Properties=species:S:1:pos:R:3:forces:R:3 structure_id=AlN_wz_static_ref_2x2x2 batch=00_relaxed_equilibrium_refs calc_mode=static purpose=equilibrium_static_reference config_type=equilibrium_static_reference dataset=AlN_ModelB_v3_rich_physics_successful source_job_dir=/home/cxshu/simu_data/vasp/EGP/submission_sets/AlN_ModelB_v3_rich_physics_full/00_relaxed_equilibrium_refs/AlN_wz_static_ref_2x2x2 phase=wurtzite min_distance_A=1.9012948307094535 relax_converged=T energy=-238.36822564 stress="0.0001139242875163542 -2.2107425323878503e-08 -2.3218413948285722e-09 -2.2107425323878503e-08 0.00011389753640824067 -3.857252639795853e-09 -2.3218413948285722e-09 -3.857252639795853e-09 -0.00031211537698653207" free_energy=-238.36822564 pbc="T T T"
Al      -0.00000007       1.80653073       0.00057427       0.00000050      -0.00000048       0.00871698
Al       4.69350450       0.90326529       2.50741873      -0.00000116      -0.00000068       0.00871689
Al       3.12900289       1.80653072       0.00057426       0.00000002      -0.00000133       0.00871831
Al       0.00000004       3.61306135       7.52110769       0.00000158       0.00000071       0.00871724
Al      -1.56450156       4.51632678       5.01426322       0.00000102       0.00000098       0.00871681
Al       1.56450140       4.51632677       0.00057426      -0.00000016       0.00000051       0.00871892
Al       3.12900301       3.61306134       2.50741873      -0.00000053       0.00000061       0.00871639
Al       4.69350449       0.90326528       7.52110768      -0.00000039      -0.00000111       0.00871727
Al       0.00000005       3.61306135       2.50741874      -0.00000008       0.00000161       0.00871743
Al       1.56450153       0.90326530       7.52110769      -0.00000020       0.00000114       0.00871817
Al      -0.00000007       1.80653073       5.01426322       0.00000145      -0.00000012       0.00871755
Al       1.56450140       4.51632676       5.01426321      -0.00000015      -0.00000050       0.00871943
Al       3.12900300       3.61306133       7.52110768      -0.00000210       0.00000062       0.00871634
Al       1.56450154       0.90326530       2.50741874       0.00000059      -0.00000030       0.00871844
Al      -1.56450156       4.51632678       0.00057427       0.00000095       0.00000081       0.00871847
Al       3.12900289       1.80653071       5.01426321      -0.00000082      -0.00000090       0.00871782
N        1.56450149       4.51632671       1.91465490       0.00000055       0.00000008      -0.00871793
N        3.12900291       3.61306139       4.42149938      -0.00000091       0.00000001      -0.00871744
N        4.69350440       0.90326533       9.43518833      -0.00000005       0.00000033      -0.00871736
N        3.12900298       1.80653066       6.92834385       0.00000013      -0.00000010      -0.00871765
N       -0.00000005       3.61306140       9.43518833      -0.00000050      -0.00000036      -0.00871796
N        3.12900298       1.80653066       1.91465490       0.00000066       0.00000006      -0.00871776
N        1.56450149       4.51632671       6.92834385       0.00000021      -0.00000057      -0.00871768
N       -1.56450147       4.51632672       6.92834386       0.00000020      -0.00000086      -0.00871753
N       -0.00000005       3.61306140       4.42149938      -0.00000081      -0.00000005      -0.00871744
N       -1.56450147       4.51632673       1.91465491       0.00000024      -0.00000086      -0.00871793
N        1.56450144       0.90326535       9.43518833       0.00000012       0.00000023      -0.00871758
N        0.00000002       1.80653067       6.92834386       0.00000081      -0.00000031      -0.00871796
N        1.56450144       0.90326535       4.42149938       0.00000002      -0.00000004      -0.00871766
N        0.00000002       1.80653068       1.91465491       0.00000022      -0.00000030      -0.00871773
N        4.69350440       0.90326534       4.42149938      -0.00000069       0.00000076      -0.00871757
N        3.12900291       3.61306138       9.43518833      -0.00000073       0.00000040      -0.00871729
72
Lattice="9.38700887 -4e-08 -1e-08 -4.69350448 8.12938814 -0.0 -1e-08 -1e-08 10.0273779" Properties=species:S:1:pos:R:3:forces:R:3 structure_id=AlN_wz_static_ref_3x3x2 batch=00_relaxed_equilibrium_refs calc_mode=static purpose=equilibrium_static_reference config_type=equilibrium_static_reference dataset=AlN_ModelB_v3_rich_physics_successful source_job_dir=/home/cxshu/simu_data/vasp/EGP/submission_sets/AlN_ModelB_v3_rich_physics_full/00_relaxed_equilibrium_refs/AlN_wz_static_ref_3x3x2 phase=wurtzite min_distance_A=1.9012948283129922 relax_converged=T energy=-536.32901697 stress="0.00012618689935635843 -1.8262655702334413e-08 -6.303924217142091e-10 -1.8262655702334413e-08 0.00012616240143303932 -5.810844996197314e-09 -6.303924217142091e-10 -5.810844996197314e-09 -0.00029713222863175613" free_energy=-536.32901697 pbc="T T T"
Al      -0.00000001       1.80653068       0.00057427      -0.00000270      -0.00000380       0.00871622
Al      -3.12900302       7.22612279       5.01426322      -0.00000868       0.00000387       0.00871776
Al      -1.56450155       6.32285744       7.52110769      -0.00000731       0.00000492       0.00871263
Al      -0.00000009       7.22612278       0.00057426       0.00000309       0.00000260       0.00871530
Al       1.56450147       6.32285743       7.52110769       0.00000298       0.00000239       0.00871690
Al       3.12900292       1.80653066       0.00057426      -0.00000165      -0.00000576       0.00871688
Al       4.69350447       0.90326532       2.50741874      -0.00000219      -0.00000018       0.00871591
Al       4.69350440       4.51632674       5.01426321       0.00000234       0.00000773       0.00871529
Al       6.25800592       3.61306132       2.50741873      -0.00000071       0.00000019       0.00871626
Al       3.12900291       1.80653066       5.01426321      -0.00000424      -0.00000487       0.00871410
Al       4.69350447       0.90326531       7.52110769       0.00000053       0.00000031       0.00871746
Al       1.56450139       4.51632676       0.00057426      -0.00000341       0.00000123       0.00871453
Al       3.12900300       3.61306133       2.50741874      -0.00000063      -0.00000185       0.00871483
Al       7.82250739       0.90326530       7.52110768       0.00000319      -0.00000046       0.00871810
Al       6.25800593       1.80653064       5.01426321       0.00000600      -0.00000360       0.00871495
Al       4.69350441       4.51632675       0.00057426       0.00000264       0.00000832       0.00871510
Al       1.56450139       4.51632676       5.01426321       0.00000094       0.00000019       0.00871610
Al       6.25800592       3.61306132       7.52110768      -0.00000060       0.00000013       0.00871524
Al      -3.12900301       7.22612280       0.00057427      -0.00000780       0.00000117       0.00871599
Al       1.56450146       0.90326533       2.50741874      -0.00000555      -0.00000050       0.00871517
Al       4.69350439       6.32285742       7.52110768       0.00000371       0.00000574       0.00871726
Al       3.12900293       7.22612276       5.01426321       0.00000790       0.00000378       0.00871222
Al      -0.00000002       1.80653067       5.01426322      -0.00000058      -0.00000848       0.00871474
Al       1.56450145       0.90326532       7.52110769      -0.00000548      -0.00000520       0.00871415
Al      -0.00000009       7.22612278       5.01426321       0.00000192       0.00000303       0.00871629
Al      -1.56450155       6.32285745       2.50741874      -0.00000486       0.00000439       0.00871315
Al       6.25800593       1.80653065       0.00057426       0.00000568      -0.00000546       0.00871356
Al      -0.00000002       3.61306135       2.50741874      -0.00000002      -0.00000798       0.00871423
Al       4.69350440       6.32285742       2.50741873       0.00000203       0.00000502       0.00871860
Al       3.12900293       7.22612277       0.00057426       0.00000568       0.00000357       0.00871165
Al      -1.56450154       4.51632677       5.01426322      -0.00000178      -0.00000305       0.00871627
Al      -0.00000003       3.61306134       7.52110769      -0.00000101      -0.00000487       0.00871779
Al       7.82250740       0.90326530       2.50741873       0.00000629       0.00000102       0.00871763
Al       1.56450147       6.32285744       2.50741874       0.00000210       0.00000282       0.00871530
Al      -1.56450153       4.51632678       0.00057427       0.00000202      -0.00000327       0.00871360
Al       3.12900299       3.61306133       7.52110769       0.00000014       0.00000137       0.00871333
N        6.25800593       1.80653065       1.91465490       0.00000270      -0.00000106      -0.00871353
N        7.82250740       0.90326530       4.42149938       0.00000404      -0.00000172      -0.00871748
N        4.69350441       4.51632675       1.91465490       0.00000130       0.00000310      -0.00871421
N        7.82250739       0.90326529       9.43518833       0.00000293      -0.00000147      -0.00871493
N        6.25800592       3.61306132       4.42149938      -0.00000040       0.00000032      -0.00871224
N        4.69350440       4.51632674       6.92834385       0.00000107       0.00000349      -0.00871624
N        6.25800592       3.61306131       9.43518833       0.00000049       0.00000122      -0.00871674
N        3.12900293       7.22612277       1.91465490       0.00000395       0.00000190      -0.00871707
N        4.69350440       6.32285742       4.42149938       0.00000011       0.00000452      -0.00871432
N        6.25800593       1.80653064       6.92834385       0.00000229      -0.00000136      -0.00871475
N        1.56450147       6.32285743       9.43518833       0.00000162       0.00000116      -0.00871544
N        3.12900299       3.61306133       4.42149938       0.00000011      -0.00000093      -0.00871583
N        1.56450147       6.32285743       4.42149938       0.00000333       0.00000204      -0.00871507
N       -0.00000001       1.80653067       1.91465491       0.00000115      -0.00000476      -0.00871561
N        1.56450145       0.90326533       4.42149938      -0.00000456      -0.00000249      -0.00871712
N       -0.00000002       1.80653067       6.92834386       0.00000106      -0.00000429      -0.00871593
N        1.56450145       0.90326532       9.43518833      -0.00000443      -0.00000166      -0.00871579
N       -1.56450154       4.51632677       1.91465491       0.00000008      -0.00000078      -0.00871401
N       -0.00000002       3.61306135       4.42149938      -0.00000100      -0.00000444      -0.00871501
N       -1.56450154       4.51632677       6.92834386       0.00000008      -0.00000100      -0.00871539
N       -0.00000003       3.61306134       9.43518833      -0.00000150      -0.00000346      -0.00871528
N       -3.12900301       7.22612279       1.91465491      -0.00000411       0.00000278      -0.00871570
N       -1.56450155       6.32285745       4.42149938      -0.00000374       0.00000239      -0.00871605
N       -3.12900302       7.22612279       6.92834386      -0.00000356      -0.00000007      -0.00871643
N       -1.56450155       6.32285744       9.43518833      -0.00000207       0.00000061      -0.00871659
N        3.12900291       1.80653066       1.91465491      -0.00000302      -0.00000259      -0.00871385
N        4.69350447       0.90326531       4.42149938       0.00000011       0.00000044      -0.00871518
N        3.12900291       1.80653066       6.92834386      -0.00000152      -0.00000260      -0.00871536
N        4.69350447       0.90326531       9.43518833       0.00000053      -0.00000119      -0.00871405
N        1.56450139       4.51632676       1.91465491      -0.00000055      -0.00000077      -0.00871550
N        3.12900293       7.22612276       6.92834385       0.00000415       0.00000150      -0.00871502
N        1.56450138       4.51632676       6.92834386       0.00000058       0.00000041      -0.00871493
N        3.12900299       3.61306133       9.43518833       0.00000055       0.00000072      -0.00871628
N       -0.00000009       7.22612278       1.91465491      -0.00000088       0.00000216      -0.00871521
N       -0.00000009       7.22612278       6.92834386      -0.00000158      -0.00000081      -0.00871438
N        4.69350439       6.32285742       9.43518833       0.00000071       0.00000425      -0.00871795
4
Lattice="3.12900296 -1e-08 -0.0 -1.56450149 2.70979605 -0.0 -0.0 -1e-08 5.01368895" Properties=species:S:1:pos:R:3:forces:R:3 structure_id=AlN_wz_relax_cell_1x1x1 batch=00_relaxed_equilibrium_refs calc_mode=bulk_relax purpose=relaxed_equilibrium_reference config_type=relaxed_equilibrium_reference dataset=AlN_ModelB_v3_rich_physics_successful source_job_dir=/home/cxshu/simu_data/vasp/EGP/submission_sets/AlN_ModelB_v3_rich_physics_full/00_relaxed_equilibrium_refs/AlN_wz_relax_cell_1x1x1 phase=wurtzite min_distance_A=1.9012948179067668 relax_converged=T energy=-29.79596966 stress="0.0001009294467917379 -2.8661009906055924e-08 -8.176376954907069e-10 -2.8661009906055924e-08 0.00010089030628800947 -3.645041329515823e-09 -8.176376954907069e-10 -3.645041329515823e-09 -0.0003295064496300008" free_energy=-29.79596966 pbc="T T T"
Al      -0.00000002       1.80653071       0.00057427       0.00000027      -0.00000018       0.00870749
Al       1.56450149       0.90326533       2.50741874      -0.00000036       0.00000032       0.00870753
N       -0.00000002       1.80653070       1.91465491       0.00000044      -0.00000039      -0.00870733
N        1.56450149       0.90326533       4.42149944      -0.00000035       0.00000024      -0.00870769
32
Lattice="6.25800592 -3e-08 -1e-08 -3.12900298 5.4195921 -0.0 -1e-08 -1e-08 10.0273779" Properties=species:S:1:pos:R:3:forces:R:3 structure_id=AlN_wz_relax_cell_2x2x2 batch=00_relaxed_equilibrium_refs calc_mode=bulk_relax purpose=relaxed_equilibrium_reference config_type=relaxed_equilibrium_reference dataset=AlN_ModelB_v3_rich_physics_successful source_job_dir=/home/cxshu/simu_data/vasp/EGP/submission_sets/AlN_ModelB_v3_rich_physics_full/00_relaxed_equilibrium_refs/AlN_wz_relax_cell_2x2x2 phase=wurtzite min_distance_A=1.9012948307094535 relax_converged=T energy=-238.36822564 stress="0.00011392420637673557 -2.1920180050102004e-08 -2.3218413948285722e-09 -2.1920180050102004e-08 0.00011389741781956729 -3.8510111306699706e-09 -2.3218413948285722e-09 -3.8510111306699706e-09 -0.00031211527088087694" free_energy=-238.36822564 pbc="T T T"
Al      -0.00000007       1.80653073       0.00057427       0.00000050      -0.00000048       0.00871698
Al       4.69350450       0.90326529       2.50741873      -0.00000116      -0.00000068       0.00871689
Al       3.12900289       1.80653072       0.00057426       0.00000002      -0.00000133       0.00871831
Al       0.00000004       3.61306135       7.52110769       0.00000158       0.00000071       0.00871724
Al      -1.56450156       4.51632678       5.01426322       0.00000102       0.00000098       0.00871681
Al       1.56450140       4.51632677       0.00057426      -0.00000016       0.00000051       0.00871892
Al       3.12900301       3.61306134       2.50741873      -0.00000053       0.00000061       0.00871639
Al       4.69350449       0.90326528       7.52110768      -0.00000039      -0.00000111       0.00871727
Al       0.00000005       3.61306135       2.50741874      -0.00000008       0.00000161       0.00871743
Al       1.56450153       0.90326530       7.52110769      -0.00000020       0.00000114       0.00871817
Al      -0.00000007       1.80653073       5.01426322       0.00000145      -0.00000012       0.00871755
Al       1.56450140       4.51632676       5.01426321      -0.00000015      -0.00000050       0.00871943
Al       3.12900300       3.61306133       7.52110768      -0.00000210       0.00000062       0.00871634
Al       1.56450154       0.90326530       2.50741874       0.00000059      -0.00000030       0.00871844
Al      -1.56450156       4.51632678       0.00057427       0.00000095       0.00000081       0.00871847
Al       3.12900289       1.80653071       5.01426321      -0.00000082      -0.00000090       0.00871782
N        1.56450149       4.51632671       1.91465490       0.00000055       0.00000008      -0.00871793
N        3.12900291       3.61306139       4.42149938      -0.00000091       0.00000002      -0.00871744
N        4.69350440       0.90326533       9.43518833      -0.00000005       0.00000033      -0.00871736
N        3.12900298       1.80653066       6.92834385       0.00000012      -0.00000010      -0.00871765
N       -0.00000005       3.61306140       9.43518833      -0.00000049      -0.00000036      -0.00871796
N        3.12900298       1.80653066       1.91465490       0.00000066       0.00000006      -0.00871776
N        1.56450149       4.51632671       6.92834385       0.00000020      -0.00000057      -0.00871768
N       -1.56450147       4.51632672       6.92834386       0.00000020      -0.00000086      -0.00871753
N       -0.00000005       3.61306140       4.42149938      -0.00000081      -0.00000005      -0.00871744
N       -1.56450147       4.51632673       1.91465491       0.00000024      -0.00000085      -0.00871793
N        1.56450144       0.90326535       9.43518833       0.00000012       0.00000023      -0.00871757
N        0.00000002       1.80653067       6.92834386       0.00000081      -0.00000031      -0.00871796
N        1.56450144       0.90326535       4.42149938       0.00000002      -0.00000003      -0.00871766
N        0.00000002       1.80653068       1.91465491       0.00000023      -0.00000030      -0.00871773
N        4.69350440       0.90326534       4.42149938      -0.00000068       0.00000076      -0.00871757
N        3.12900291       3.61306138       9.43518833      -0.00000073       0.00000040      -0.00871729
72
Lattice="9.38700887 -4e-08 -1e-08 -4.69350448 8.12938814 -0.0 -1e-08 -1e-08 10.0273779" Properties=species:S:1:pos:R:3:forces:R:3 structure_id=AlN_wz_relax_cell_3x3x2 batch=00_relaxed_equilibrium_refs calc_mode=bulk_relax purpose=relaxed_equilibrium_reference config_type=relaxed_equilibrium_reference dataset=AlN_ModelB_v3_rich_physics_successful source_job_dir=/home/cxshu/simu_data/vasp/EGP/submission_sets/AlN_ModelB_v3_rich_physics_full/00_relaxed_equilibrium_refs/AlN_wz_relax_cell_3x3x2 phase=wurtzite min_distance_A=1.9012948283129922 relax_converged=T energy=-536.32901697 stress="0.0001261868244582489 -1.820024061107558e-08 -6.74082985595392e-10 -1.820024061107558e-08 0.00012616243264058495 -5.792120468819664e-09 -6.74082985595392e-10 -5.792120468819664e-09 -0.00029713225983930174" free_energy=-536.32901697 pbc="T T T"
Al      -0.00000001       1.80653068       0.00057427      -0.00000270      -0.00000380       0.00871622
Al      -3.12900302       7.22612279       5.01426322      -0.00000867       0.00000387       0.00871776
Al      -1.56450155       6.32285744       7.52110769      -0.00000731       0.00000492       0.00871263
Al      -0.00000009       7.22612278       0.00057426       0.00000309       0.00000260       0.00871530
Al       1.56450147       6.32285743       7.52110769       0.00000298       0.00000239       0.00871690
Al       3.12900292       1.80653066       0.00057426      -0.00000165      -0.00000576       0.00871688
Al       4.69350447       0.90326532       2.50741874      -0.00000219      -0.00000018       0.00871591
Al       4.69350440       4.51632674       5.01426321       0.00000234       0.00000773       0.00871529
Al       6.25800592       3.61306132       2.50741873      -0.00000071       0.00000019       0.00871626
Al       3.12900291       1.80653066       5.01426321      -0.00000424      -0.00000487       0.00871410
Al       4.69350447       0.90326531       7.52110769       0.00000053       0.00000031       0.00871746
Al       1.56450139       4.51632676       0.00057426      -0.00000341       0.00000123       0.00871453
Al       3.12900300       3.61306133       2.50741874      -0.00000063      -0.00000185       0.00871483
Al       7.82250739       0.90326530       7.52110768       0.00000319      -0.00000046       0.00871810
Al       6.25800593       1.80653064       5.01426321       0.00000601      -0.00000360       0.00871495
Al       4.69350441       4.51632675       0.00057426       0.00000264       0.00000832       0.00871510
Al       1.56450139       4.51632676       5.01426321       0.00000094       0.00000019       0.00871610
Al       6.25800592       3.61306132       7.52110768      -0.00000060       0.00000013       0.00871524
Al      -3.12900301       7.22612280       0.00057427      -0.00000780       0.00000117       0.00871599
Al       1.56450146       0.90326533       2.50741874      -0.00000555      -0.00000050       0.00871517
Al       4.69350439       6.32285742       7.52110768       0.00000371       0.00000574       0.00871726
Al       3.12900293       7.22612276       5.01426321       0.00000790       0.00000379       0.00871222
Al      -0.00000002       1.80653067       5.01426322      -0.00000058      -0.00000848       0.00871474
Al       1.56450145       0.90326532       7.52110769      -0.00000548      -0.00000520       0.00871415
Al      -0.00000009       7.22612278       5.01426321       0.00000192       0.00000303       0.00871629
Al      -1.56450155       6.32285745       2.50741874      -0.00000486       0.00000439       0.00871315
Al       6.25800593       1.80653065       0.00057426       0.00000568      -0.00000546       0.00871356
Al      -0.00000002       3.61306135       2.50741874      -0.00000002      -0.00000798       0.00871423
Al       4.69350440       6.32285742       2.50741873       0.00000203       0.00000502       0.00871860
Al       3.12900293       7.22612277       0.00057426       0.00000568       0.00000357       0.00871165
Al      -1.56450154       4.51632677       5.01426322      -0.00000178      -0.00000305       0.00871627
Al      -0.00000003       3.61306134       7.52110769      -0.00000100      -0.00000487       0.00871779
Al       7.82250740       0.90326530       2.50741873       0.00000629       0.00000102       0.00871763
Al       1.56450147       6.32285744       2.50741874       0.00000210       0.00000282       0.00871530
Al      -1.56450153       4.51632678       0.00057427       0.00000202      -0.00000327       0.00871360
Al       3.12900299       3.61306133       7.52110769       0.00000014       0.00000137       0.00871333
N        6.25800593       1.80653065       1.91465490       0.00000270      -0.00000106      -0.00871353
N        7.82250740       0.90326530       4.42149938       0.00000404      -0.00000171      -0.00871748
N        4.69350441       4.51632675       1.91465490       0.00000130       0.00000309      -0.00871421
N        7.82250739       0.90326529       9.43518833       0.00000293      -0.00000148      -0.00871494
N        6.25800592       3.61306132       4.42149938      -0.00000040       0.00000032      -0.00871224
N        4.69350440       4.51632674       6.92834385       0.00000107       0.00000349      -0.00871624
N        6.25800592       3.61306131       9.43518833       0.00000049       0.00000122      -0.00871674
N        3.12900293       7.22612277       1.91465490       0.00000395       0.00000190      -0.00871707
N        4.69350440       6.32285742       4.42149938       0.00000011       0.00000452      -0.00871432
N        6.25800593       1.80653064       6.92834385       0.00000228      -0.00000137      -0.00871475
N        1.56450147       6.32285743       9.43518833       0.00000162       0.00000116      -0.00871543
N        3.12900299       3.61306133       4.42149938       0.00000010      -0.00000093      -0.00871583
N        1.56450147       6.32285743       4.42149938       0.00000333       0.00000204      -0.00871507
N       -0.00000001       1.80653067       1.91465491       0.00000115      -0.00000476      -0.00871561
N        1.56450145       0.90326533       4.42149938      -0.00000456      -0.00000249      -0.00871712
N       -0.00000002       1.80653067       6.92834386       0.00000106      -0.00000429      -0.00871593
N        1.56450145       0.90326532       9.43518833      -0.00000443      -0.00000166      -0.00871580
N       -1.56450154       4.51632677       1.91465491       0.00000008      -0.00000078      -0.00871401
N       -0.00000002       3.61306135       4.42149938      -0.00000100      -0.00000445      -0.00871500
N       -1.56450154       4.51632677       6.92834386       0.00000007      -0.00000100      -0.00871539
N       -0.00000003       3.61306134       9.43518833      -0.00000150      -0.00000346      -0.00871528
N       -3.12900301       7.22612279       1.91465491      -0.00000412       0.00000278      -0.00871570
N       -1.56450155       6.32285745       4.42149938      -0.00000374       0.00000239      -0.00871604
N       -3.12900302       7.22612279       6.92834386      -0.00000356      -0.00000007      -0.00871643
N       -1.56450155       6.32285744       9.43518833      -0.00000207       0.00000061      -0.00871659
N        3.12900291       1.80653066       1.91465491      -0.00000302      -0.00000259      -0.00871385
N        4.69350447       0.90326531       4.42149938       0.00000011       0.00000044      -0.00871519
N        3.12900291       1.80653066       6.92834386      -0.00000151      -0.00000259      -0.00871536
N        4.69350447       0.90326531       9.43518833       0.00000053      -0.00000119      -0.00871405
N        1.56450139       4.51632676       1.91465491      -0.00000056      -0.00000077      -0.00871550
N        3.12900293       7.22612276       6.92834385       0.00000415       0.00000150      -0.00871501
N        1.56450138       4.51632676       6.92834386       0.00000058       0.00000041      -0.00871493
N        3.12900299       3.61306133       9.43518833       0.00000055       0.00000072      -0.00871628
N       -0.00000009       7.22612278       1.91465491      -0.00000088       0.00000216      -0.00871521
N       -0.00000009       7.22612278       6.92834386      -0.00000159      -0.00000081      -0.00871438
N        4.69350439       6.32285742       9.43518833       0.00000071       0.00000425      -0.00871796
4
Lattice="2.7535226 -1e-08 -0.0 -1.37676131 2.38462052 -0.0 -0.0 -1e-08 4.41204628" Properties=species:S:1:pos:R:3:forces:R:3 structure_id=AlN_wz_eos_1x1x1_m0p1200 batch=01_eos_hydrostatic_static calc_mode=static purpose=eos_hydrostatic_static config_type=eos_hydrostatic_static dataset=AlN_ModelB_v3_rich_physics_successful source_job_dir=/home/cxshu/simu_data/vasp/EGP/submission_sets/AlN_ModelB_v3_rich_physics_full/01_eos_hydrostatic_static/AlN_wz_eos_1x1x1_m0p1200 phase=wurtzite strain_label=scale_0.8800 min_distance_A=1.6731394365204804 relax_converged=T energy=-24.93178812 stress="-1.001032419483923 -8.775561830991861e-08 4.4314714793771133e-10 -8.775561830991861e-08 -1.0010325439084076 -1.193376544868879e-08 4.4314714793771133e-10 -1.193376544868879e-08 -0.9271403226307771" free_energy=-24.93178812 pbc="T T T"
Al      -0.00000002       1.58974702       0.00050536       0.00000139      -0.00000074      -0.22339896
Al       1.37676131       0.79487349       2.20652850      -0.00000153       0.00000128      -0.22339874
N       -0.00000002       1.58974701       1.68489632       0.00000128      -0.00000115       0.22339906
N        1.37676131       0.79487348       3.89091951      -0.00000114       0.00000060       0.22339864
4
Lattice="2.81610266 -1e-08 -0.0 -1.40805134 2.43881644 -0.0 -0.0 -1e-08 4.51232006" Properties=species:S:1:pos:R:3:forces:R:3 structure_id=AlN_wz_eos_1x1x1_m0p1000 batch=01_eos_hydrostatic_static calc_mode=static purpose=eos_hydrostatic_static config_type=eos_hydrostatic_static dataset=AlN_ModelB_v3_rich_physics_successful source_job_dir=/home/cxshu/simu_data/vasp/EGP/submission_sets/AlN_ModelB_v3_rich_physics_full/01_eos_hydrostatic_static/AlN_wz_eos_1x1x1_m0p1000 phase=wurtzite strain_label=scale_0.9000 min_distance_A=1.7111653332156953 relax_converged=T energy=-26.62469 stress="-0.72593501579698 -6.092337057774648e-08 5.0244148463360224e-09 -6.092337057774648e-08 -0.7259351495525206 -1.2245840904982952e-08 5.0244148463360224e-09 -1.2245840904982952e-08 -0.6733782256174089" free_energy=-26.62469 pbc="T T T"
Al      -0.00000002       1.62587763       0.00051684       0.00000112      -0.00000068      -0.16386623
Al       1.40805134       0.81293879       2.25667687      -0.00000124       0.00000116      -0.16386607